LAMMPS data file

72 atoms
72 ellipsoids
71 bonds
142 angles
0 dihedrals

3 atom types
5 bond types
12 angle types
0 dihedral types

-527.175000 527.175000 xlo xhi
-527.175000 527.175000 ylo yhi
-527.175000 527.175000 zlo zhi

Masses

1 196666.000000
2 1950.000000
3 19500.000000

Atoms

1 2 -0.000000 0.003514 -351.450000 1 1.000000 1 -3.000000
2 2 -0.000000 0.003415 -341.550000 1 1.000000 1 -3.000000
3 2 -0.000000 0.003316 -331.650000 1 1.000000 1 -3.000000
4 2 -0.000000 0.003217 -321.750000 1 1.000000 1 -3.000000
5 2 -0.000000 0.003118 -311.850000 1 1.000000 1 -3.000000
6 2 -0.000000 0.003019 -301.950000 1 1.000000 1 -3.000000
7 2 -0.000000 0.002920 -292.050000 1 1.000000 1 -3.000000
8 2 -0.000000 0.002821 -282.150000 1 1.000000 1 -3.000000
9 2 -0.000000 0.002722 -272.250000 1 1.000000 1 -3.000000
10 2 -0.000000 0.002623 -262.350000 1 1.000000 1 -3.000000
11 2 -0.000000 0.002524 -252.450000 1 1.000000 1 -3.000000
12 2 -0.000000 0.002425 -242.550000 1 1.000000 1 -3.000000
13 2 -0.000000 0.002326 -232.650000 1 1.000000 1 -3.000000
14 2 -0.000000 0.002227 -222.750000 1 1.000000 1 -3.000000
15 2 -0.000000 0.002128 -212.850000 1 1.000000 1 -3.000000
16 2 -0.000000 0.002029 -202.950000 1 1.000000 1 -3.000000
17 2 -0.000000 0.001930 -193.050000 1 1.000000 1 -3.000000
18 2 -0.000000 0.001831 -183.150000 1 1.000000 1 -3.000000
19 2 -0.000000 0.001732 -173.250000 1 1.000000 1 -3.000000
20 2 -0.000000 0.001633 -163.350000 1 1.000000 1 -3.000000
21 2 -0.000000 0.001534 -153.450000 1 1.000000 1 -3.000000
22 2 -0.000000 0.001435 -143.550000 1 1.000000 1 -3.000000
23 2 -0.000000 0.001336 -133.650000 1 1.000000 1 -3.000000
24 2 -0.000000 0.001237 -123.750000 1 1.000000 1 -3.000000
25 2 -0.000000 0.001138 -113.850000 1 1.000000 1 -3.000000
26 2 -0.000000 0.001039 -103.950000 1 1.000000 1 -3.000000
27 2 -0.000000 0.000940 -94.050000 1 1.000000 1 -3.000000
28 2 -0.000000 0.000841 -84.150000 1 1.000000 1 -3.000000
29 2 -0.000000 0.000742 -74.250000 1 1.000000 1 -3.000000
30 2 0.000000 0.000643 -64.350000 1 1.000000 1 -3.000000
31 2 0.000000 0.000544 -54.450000 1 1.000000 1 -3.000000
32 2 0.000000 0.000445 -44.550000 1 1.000000 1 -3.000000
33 2 0.000000 0.000346 -34.650000 1 1.000000 1 -3.000000
34 2 0.000000 0.000247 -24.750000 1 1.000000 1 -3.000000
35 2 0.000000 0.000148 -14.850000 1 1.000000 1 -3.000000
36 2 0.000000 0.000049 -4.950000 1 1.000000 1 -3.000000
37 2 0.000000 -0.000049 4.950000 1 1.000000 1 -3.000000
38 2 0.000000 -0.000148 14.850000 1 1.000000 1 -3.000000
39 2 0.000000 -0.000247 24.750000 1 1.000000 1 -3.000000
40 2 0.000000 -0.000346 34.650000 1 1.000000 1 -3.000000
41 2 0.000000 -0.000445 44.550000 1 1.000000 1 -3.000000
42 2 0.000000 -0.000544 54.450000 1 1.000000 1 -3.000000
43 2 0.000000 -0.000643 64.350000 1 1.000000 1 -3.000000
44 2 0.000000 -0.000742 74.250000 1 1.000000 1 -3.000000
45 2 0.000000 -0.000841 84.150000 1 1.000000 1 -3.000000
46 2 0.000000 -0.000940 94.050000 1 1.000000 1 -3.000000
47 2 0.000000 -0.001039 103.950000 1 1.000000 1 -3.000000
48 2 0.000000 -0.001138 113.850000 1 1.000000 1 -3.000000
49 2 0.000000 -0.001237 123.750000 1 1.000000 1 -3.000000
50 2 0.000000 -0.001336 133.650000 1 1.000000 1 -3.000000
51 2 0.000000 -0.001435 143.550000 1 1.000000 1 -3.000000
52 2 0.000000 -0.001534 153.450000 1 1.000000 1 -3.000000
53 2 0.000000 -0.001633 163.350000 1 1.000000 1 -3.000000
54 2 0.000000 -0.001732 173.250000 1 1.000000 1 -3.000000
55 2 0.000000 -0.001831 183.150000 1 1.000000 1 -3.000000
56 2 0.000000 -0.001930 193.050000 1 1.000000 1 -3.000000
57 2 0.000000 -0.002029 202.950000 1 1.000000 1 -3.000000
58 2 0.000000 -0.002128 212.850000 1 1.000000 1 -3.000000
59 2 0.000000 -0.002227 222.750000 1 1.000000 1 -3.000000
60 2 0.000000 -0.002326 232.650000 1 1.000000 1 -3.000000
61 2 0.000000 -0.002425 242.550000 1 1.000000 1 -3.000000
62 2 0.000000 -0.002524 252.450000 1 1.000000 1 -3.000000
63 2 0.000000 -0.002623 262.350000 1 1.000000 1 -3.000000
64 2 -0.000000 -0.002722 272.250000 1 1.000000 1 -3.000000
65 2 -0.000000 -0.002821 282.150000 1 1.000000 1 -3.000000
66 2 -0.000000 -0.002920 292.050000 1 1.000000 1 -3.000000
67 2 -0.000000 -0.003019 301.950000 1 1.000000 1 -3.000000
68 2 -0.000000 -0.003118 311.850000 1 1.000000 1 -3.000000
69 2 -0.000000 -0.003217 321.750000 1 1.000000 1 -3.000000
70 2 -0.000000 -0.003316 331.650000 1 1.000000 1 -3.000000
71 2 -0.000000 -0.003415 341.550000 1 1.000000 1 -3.000000
72 2 -0.000000 -0.003514 351.450000 1 1.000000 1 -3.000000

Ellipsoids

1 20.000000 20.000000 20.000000 1.000000 0.000005 0.000000 0.000000
2 20.000000 20.000000 20.000000 0.587785 0.000003 -0.000004 0.809017
3 20.000000 20.000000 20.000000 -0.309017 -0.000002 -0.000005 0.951057
4 20.000000 20.000000 20.000000 -0.951057 -0.000005 -0.000002 0.309017
5 20.000000 20.000000 20.000000 -0.809017 -0.000004 0.000003 -0.587785
6 20.000000 20.000000 20.000000 0.000000 0.000000 0.000005 -1.000000
7 20.000000 20.000000 20.000000 0.809017 0.000004 0.000003 -0.587785
8 20.000000 20.000000 20.000000 0.951057 0.000005 -0.000002 0.309017
9 20.000000 20.000000 20.000000 0.309017 0.000002 -0.000005 0.951057
10 20.000000 20.000000 20.000000 -0.587785 -0.000003 -0.000004 0.809017
11 20.000000 20.000000 20.000000 -1.000000 -0.000005 0.000000 -0.000000
12 20.000000 20.000000 20.000000 -0.587785 -0.000003 0.000004 -0.809017
13 20.000000 20.000000 20.000000 0.309017 0.000002 0.000005 -0.951057
14 20.000000 20.000000 20.000000 0.951057 0.000005 0.000002 -0.309017
15 20.000000 20.000000 20.000000 0.809017 0.000004 -0.000003 0.587785
16 20.000000 20.000000 20.000000 -0.000000 -0.000000 -0.000005 1.000000
17 20.000000 20.000000 20.000000 -0.809017 -0.000004 -0.000003 0.587785
18 20.000000 20.000000 20.000000 -0.951057 -0.000005 0.000002 -0.309017
19 20.000000 20.000000 20.000000 -0.309017 -0.000002 0.000005 -0.951057
20 20.000000 20.000000 20.000000 0.587785 0.000003 0.000004 -0.809017
21 20.000000 20.000000 20.000000 1.000000 0.000005 -0.000000 0.000000
22 20.000000 20.000000 20.000000 0.587785 0.000003 -0.000004 0.809017
23 20.000000 20.000000 20.000000 -0.309017 -0.000002 -0.000005 0.951057
24 20.000000 20.000000 20.000000 -0.951057 -0.000005 -0.000002 0.309017
25 20.000000 20.000000 20.000000 -0.809017 -0.000004 0.000003 -0.587785
26 20.000000 20.000000 20.000000 0.000000 0.000000 0.000005 -1.000000
27 20.000000 20.000000 20.000000 0.809017 0.000004 0.000003 -0.587785
28 20.000000 20.000000 20.000000 0.951057 0.000005 -0.000002 0.309017
29 20.000000 20.000000 20.000000 0.309017 0.000002 -0.000005 0.951057
30 20.000000 20.000000 20.000000 -0.587785 -0.000003 -0.000004 0.809017
31 20.000000 20.000000 20.000000 -1.000000 -0.000005 -0.000000 -0.000000
32 20.000000 20.000000 20.000000 -0.587785 -0.000003 0.000004 -0.809017
33 20.000000 20.000000 20.000000 0.309017 0.000002 0.000005 -0.951057
34 20.000000 20.000000 20.000000 0.951057 0.000005 0.000002 -0.309017
35 20.000000 20.000000 20.000000 0.809017 0.000004 -0.000003 0.587785
36 20.000000 20.000000 20.000000 -0.000000 -0.000000 -0.000005 1.000000
37 20.000000 20.000000 20.000000 -0.809017 -0.000004 -0.000003 0.587785
38 20.000000 20.000000 20.000000 -0.951057 -0.000005 0.000002 -0.309017
39 20.000000 20.000000 20.000000 -0.309017 -0.000002 0.000005 -0.951057
40 20.000000 20.000000 20.000000 0.587785 0.000003 0.000004 -0.809017
41 20.000000 20.000000 20.000000 1.000000 0.000005 -0.000000 0.000000
42 20.000000 20.000000 20.000000 0.587785 0.000003 -0.000004 0.809017
43 20.000000 20.000000 20.000000 -0.309017 -0.000002 -0.000005 0.951057
44 20.000000 20.000000 20.000000 -0.951057 -0.000005 -0.000002 0.309017
45 20.000000 20.000000 20.000000 -0.809017 -0.000004 0.000003 -0.587785
46 20.000000 20.000000 20.000000 0.000000 0.000000 0.000005 -1.000000
47 20.000000 20.000000 20.000000 0.809017 0.000004 0.000003 -0.587785
48 20.000000 20.000000 20.000000 0.951057 0.000005 -0.000002 0.309017
49 20.000000 20.000000 20.000000 0.309017 0.000002 -0.000005 0.951057
50 20.000000 20.000000 20.000000 -0.587785 -0.000003 -0.000004 0.809017
51 20.000000 20.000000 20.000000 -1.000000 -0.000005 0.000000 -0.000000
52 20.000000 20.000000 20.000000 -0.587785 -0.000003 0.000004 -0.809017
53 20.000000 20.000000 20.000000 0.309017 0.000002 0.000005 -0.951057
54 20.000000 20.000000 20.000000 0.951057 0.000005 0.000002 -0.309017
55 20.000000 20.000000 20.000000 0.809017 0.000004 -0.000003 0.587785
56 20.000000 20.000000 20.000000 -0.000000 -0.000000 -0.000005 1.000000
57 20.000000 20.000000 20.000000 -0.809017 -0.000004 -0.000003 0.587785
58 20.000000 20.000000 20.000000 -0.951057 -0.000005 0.000002 -0.309017
59 20.000000 20.000000 20.000000 -0.309017 -0.000002 0.000005 -0.951057
60 20.000000 20.000000 20.000000 0.587785 0.000003 0.000004 -0.809017
61 20.000000 20.000000 20.000000 1.000000 0.000005 -0.000000 0.000000
62 20.000000 20.000000 20.000000 0.587785 0.000003 -0.000004 0.809017
63 20.000000 20.000000 20.000000 -0.309017 -0.000002 -0.000005 0.951057
64 20.000000 20.000000 20.000000 -0.951057 -0.000005 -0.000002 0.309017
65 20.000000 20.000000 20.000000 -0.809017 -0.000004 0.000003 -0.587785
66 20.000000 20.000000 20.000000 0.000000 0.000000 0.000005 -1.000000
67 20.000000 20.000000 20.000000 0.809017 0.000004 0.000003 -0.587785
68 20.000000 20.000000 20.000000 0.951057 0.000005 -0.000002 0.309017
69 20.000000 20.000000 20.000000 0.309017 0.000002 -0.000005 0.951057
70 20.000000 20.000000 20.000000 -0.587785 -0.000003 -0.000004 0.809017
71 20.000000 20.000000 20.000000 -1.000000 -0.000005 0.000000 -0.000000
72 20.000000 20.000000 20.000000 -0.587785 -0.000003 0.000004 -0.809017

Bonds

1 2 1 2
2 2 2 3
3 2 3 4
4 2 4 5
5 2 5 6
6 2 6 7
7 2 7 8
8 2 8 9
9 2 9 10
10 2 10 11
11 2 11 12
12 2 12 13
13 2 13 14
14 2 14 15
15 2 15 16
16 2 16 17
17 2 17 18
18 2 18 19
19 2 19 20
20 2 20 21
21 2 21 22
22 2 22 23
23 2 23 24
24 2 24 25
25 2 25 26
26 2 26 27
27 2 27 28
28 2 28 29
29 2 29 30
30 2 30 31
31 2 31 32
32 2 32 33
33 2 33 34
34 2 34 35
35 2 35 36
36 2 36 37
37 2 37 38
38 2 38 39
39 2 39 40
40 2 40 41
41 2 41 42
42 2 42 43
43 2 43 44
44 2 44 45
45 2 45 46
46 2 46 47
47 2 47 48
48 2 48 49
49 2 49 50
50 2 50 51
51 2 51 52
52 2 52 53
53 2 53 54
54 2 54 55
55 2 55 56
56 2 56 57
57 2 57 58
58 2 58 59
59 2 59 60
60 2 60 61
61 2 61 62
62 2 62 63
63 2 63 64
64 2 64 65
65 2 65 66
66 2 66 67
67 2 67 68
68 2 68 69
69 2 69 70
70 2 70 71
71 2 71 72

Angles

1 2 1 2 2
2 1 1 2 3
3 2 2 3 3
4 1 2 3 4
5 2 3 4 4
6 1 3 4 5
7 2 4 5 5
8 1 4 5 6
9 2 5 6 6
10 1 5 6 7
11 2 6 7 7
12 1 6 7 8
13 2 7 8 8
14 1 7 8 9
15 2 8 9 9
16 1 8 9 10
17 2 9 10 10
18 1 9 10 11
19 2 10 11 11
20 1 10 11 12
21 2 11 12 12
22 1 11 12 13
23 2 12 13 13
24 1 12 13 14
25 2 13 14 14
26 1 13 14 15
27 2 14 15 15
28 1 14 15 16
29 2 15 16 16
30 1 15 16 17
31 2 16 17 17
32 1 16 17 18
33 2 17 18 18
34 1 17 18 19
35 2 18 19 19
36 1 18 19 20
37 2 19 20 20
38 1 19 20 21
39 2 20 21 21
40 1 20 21 22
41 2 21 22 22
42 1 21 22 23
43 2 22 23 23
44 1 22 23 24
45 2 23 24 24
46 1 23 24 25
47 2 24 25 25
48 1 24 25 26
49 2 25 26 26
50 1 25 26 27
51 2 26 27 27
52 1 26 27 28
53 2 27 28 28
54 1 27 28 29
55 2 28 29 29
56 1 28 29 30
57 2 29 30 30
58 1 29 30 31
59 2 30 31 31
60 1 30 31 32
61 2 31 32 32
62 1 31 32 33
63 2 32 33 33
64 1 32 33 34
65 2 33 34 34
66 1 33 34 35
67 2 34 35 35
68 1 34 35 36
69 2 35 36 36
70 1 35 36 37
71 2 36 37 37
72 1 36 37 38
73 2 37 38 38
74 1 37 38 39
75 2 38 39 39
76 1 38 39 40
77 2 39 40 40
78 1 39 40 41
79 2 40 41 41
80 1 40 41 42
81 2 41 42 42
82 1 41 42 43
83 2 42 43 43
84 1 42 43 44
85 2 43 44 44
86 1 43 44 45
87 2 44 45 45
88 1 44 45 46
89 2 45 46 46
90 1 45 46 47
91 2 46 47 47
92 1 46 47 48
93 2 47 48 48
94 1 47 48 49
95 2 48 49 49
96 1 48 49 50
97 2 49 50 50
98 1 49 50 51
99 2 50 51 51
100 1 50 51 52
101 2 51 52 52
102 1 51 52 53
103 2 52 53 53
104 1 52 53 54
105 2 53 54 54
106 1 53 54 55
107 2 54 55 55
108 1 54 55 56
109 2 55 56 56
110 1 55 56 57
111 2 56 57 57
112 1 56 57 58
113 2 57 58 58
114 1 57 58 59
115 2 58 59 59
116 1 58 59 60
117 2 59 60 60
118 1 59 60 61
119 2 60 61 61
120 1 60 61 62
121 2 61 62 62
122 1 61 62 63
123 2 62 63 63
124 1 62 63 64
125 2 63 64 64
126 1 63 64 65
127 2 64 65 65
128 1 64 65 66
129 2 65 66 66
130 1 65 66 67
131 2 66 67 67
132 1 66 67 68
133 2 67 68 68
134 1 67 68 69
135 2 68 69 69
136 1 68 69 70
137 2 69 70 70
138 1 69 70 71
139 2 70 71 71
140 1 70 71 72
141 2 71 72 72
142 3 71 72 72


