LAMMPS data file

2 atoms
2 ellipsoids
1 bonds
0 angles
0 dihedrals

1 atom types
1 bond types
0 angle types
0 dihedral types

-10.0 10.0 xlo xhi
-10.0 10.0 ylo yhi
-10.0 10.0 zlo zhi

Masses

1 10.000000

Atoms

1 1 0.000000 0.000000 0.000000 1.000000 1.000000 1 0.000000
2 1 5.000000 4.000000 3.000000 1.000000 1.000000 2 0.000000

Ellipsoids

1 1.000000 2.000000 2.000000 1.000000 0.000000 0.000000 0.000000
2 1.000000 2.000000 2.000000 1.000000 0.000000 0.000000 0.000000

Velocities

1 0 0 0 0 0 0
2 0 0 0 0 0 0

Bonds

1 1 1 2

