LAMMPS data file

112 atoms
112 ellipsoids
135 bonds
171 angles
4 dihedrals

5 atom types
17 bond types
19 angle types
2 dihedral types

-351.270856 258.614056 xlo xhi
-351.270856 258.614056 ylo yhi
-351.270856 258.614056 zlo zhi

Masses

1 196666.000000
2 1950.000000
3 19500.000000
4 1466.666667
5 550.000000

Atoms

1 2 -39.289407 -144.413876 -234.180571 1 1.000000 1 -3.000000
2 2 -39.289407 -144.413975 -224.280571 1 1.000000 1 -3.000000
3 2 -39.289407 -144.414074 -214.380571 1 1.000000 1 -3.000000
4 2 -39.289407 -144.414173 -204.480571 1 1.000000 1 -3.000000
5 2 -39.289407 -144.414272 -194.580571 1 1.000000 1 -3.000000
6 2 -39.289407 -144.414371 -184.680571 1 1.000000 1 -3.000000
7 2 -39.289407 -144.414470 -174.780571 1 1.000000 1 -3.000000
8 2 -39.289407 -144.414569 -164.880571 1 1.000000 1 -3.000000
9 2 -39.289407 -144.414668 -154.980571 1 1.000000 1 -3.000000
10 2 -39.289407 -144.414767 -145.080571 1 1.000000 1 -3.000000
11 2 -39.289407 -144.414866 -135.180571 1 1.000000 1 -3.000000
12 2 -39.289407 -144.414965 -125.280571 1 1.000000 1 -3.000000
13 2 -39.289407 -144.415064 -115.380571 1 1.000000 1 -3.000000
14 2 -39.289407 -144.415163 -105.480571 1 1.000000 1 -3.000000
15 2 -39.289407 -144.415262 -95.580571 1 1.000000 1 -3.000000
16 2 -39.289407 -144.415361 -85.680571 1 1.000000 2 -3.000000
17 1 -21.610503 -129.146503 -43.728424 1 1.000000 2 0.000000
18 3 -21.610503 -101.661983 -65.398707 1 1.000000 2 0.000000
19 2 -3.931599 -91.914366 -19.093316 1 1.000000 2 -3.000000
20 2 -3.931599 -82.287546 -16.783700 1 1.000000 1 -3.000000
21 2 -3.931599 -72.660725 -14.474084 1 1.000000 1 -3.000000
22 2 -3.931599 -63.033904 -12.164468 1 1.000000 1 -3.000000
23 2 -3.931599 -53.407084 -9.854853 1 1.000000 1 -3.000000
24 2 -3.931599 -43.780263 -7.545237 1 1.000000 1 -3.000000
25 2 -3.931599 -34.153443 -5.235621 1 1.000000 1 -3.000000
26 2 -3.931599 -24.526622 -2.926005 1 1.000000 1 -3.000000
27 2 -3.931599 -14.899801 -0.616390 1 1.000000 1 -3.000000
28 2 -3.931599 -5.272981 1.693226 1 1.000000 1 -3.000000
29 2 -3.931599 4.353840 4.002842 1 1.000000 1 -3.000000
30 2 -3.931599 13.980660 6.312458 1 1.000000 1 -3.000000
31 2 -3.931599 23.607481 8.622073 1 1.000000 1 -3.000000
32 2 -3.931599 33.234302 10.931689 1 1.000000 1 -3.000000
33 2 -3.931599 42.861122 13.241305 1 1.000000 1 -3.000000
34 2 -3.931599 52.487943 15.550921 1 1.000000 1 -3.000000
35 2 -3.931599 62.114764 17.860536 1 1.000000 1 -3.000000
36 2 -3.931599 71.741584 20.170152 1 1.000000 1 -3.000000
37 2 -3.931599 81.368405 22.479768 1 1.000000 1 -3.000000
38 2 -3.931599 90.995225 24.789384 1 1.000000 3 -3.000000
39 1 5.127265 126.766280 55.514503 1 1.000000 3 0.000000
40 3 31.266391 103.712299 58.717639 1 1.000000 3 0.000000
41 2 35.074284 144.114563 88.799294 1 1.000000 3 -3.000000
42 2 44.229957 145.666336 92.230863 1 1.000000 1 -3.000000
43 2 53.385629 147.218108 95.662432 1 1.000000 1 -3.000000
44 2 62.541301 148.769881 99.094000 1 1.000000 1 -3.000000
45 2 71.696974 150.321654 102.525569 1 1.000000 1 -3.000000
46 2 80.852646 151.873427 105.957138 1 1.000000 1 -3.000000
47 2 90.008319 153.425199 109.388706 1 1.000000 1 -3.000000
48 2 99.163991 154.976972 112.820275 1 1.000000 1 -3.000000
49 2 108.319664 156.528745 116.251844 1 1.000000 1 -3.000000
50 2 117.475336 158.080518 119.683412 1 1.000000 1 -3.000000
51 2 126.631009 159.632290 123.114981 1 1.000000 1 -3.000000
52 2 135.786681 161.184063 126.546550 1 1.000000 1 -3.000000
53 2 144.942353 162.735836 129.978118 1 1.000000 1 -3.000000
54 2 154.098026 164.287608 133.409687 1 1.000000 1 -3.000000
55 2 163.253698 165.839381 136.841256 1 1.000000 1 -3.000000
56 2 172.409371 167.391154 140.272824 1 1.000000 1 -3.000000
57 4 -32.366703 -78.477500 -84.361797 1 1.000000 4 -3.290000
58 4 -14.675503 -81.442216 -76.058762 1 1.000000 4 4.220000
59 4 -27.068503 -73.411392 -78.077195 1 1.000000 4 8.480000
60 4 -25.427503 -85.609742 -82.753024 1 1.000000 4 0.280000
61 4 -13.460503 -88.846131 -85.114557 1 1.000000 4 2.080000
62 4 -16.657503 -73.236114 -87.277209 1 1.000000 4 3.270000
63 5 -16.657503 -72.450842 -87.896359 1 1.000000 4 0.000000
64 5 -16.657503 -77.149333 -102.141505 1 1.000000 4 3.360000
65 5 -16.657503 -64.393477 -94.249222 1 1.000000 4 3.360000
66 5 -16.657503 -69.091967 -108.494368 1 1.000000 4 5.040000
67 5 -16.657503 -56.336111 -100.602085 1 1.000000 4 0.000000
68 5 -16.657503 -61.034602 -114.847231 1 1.000000 4 6.720000
69 5 -16.657503 -48.278746 -106.954948 1 1.000000 4 0.000000
70 5 -16.657503 -52.977237 -121.200094 1 1.000000 4 3.360000
71 5 -16.657503 -40.221381 -113.307810 1 1.000000 4 3.360000
72 5 -16.657503 -44.919872 -127.552956 1 1.000000 4 6.720000
73 5 -16.657503 -32.164015 -119.660673 1 1.000000 4 0.000000
74 5 -16.657503 -36.862506 -133.905819 1 1.000000 4 3.360000
75 5 -16.657503 -24.106650 -126.013536 1 1.000000 4 5.040000
76 5 -16.657503 -28.805141 -140.258682 1 1.000000 4 3.360000
77 5 -16.657503 -16.049285 -132.366399 1 1.000000 4 3.360000
78 5 -16.657503 -20.747776 -146.611545 1 1.000000 4 3.360000
79 5 -16.657503 -7.991920 -138.719261 1 1.000000 4 3.360000
80 5 -16.657503 -12.690410 -152.964407 1 1.000000 4 3.360000
81 5 -16.657503 0.065446 -145.072124 1 1.000000 4 3.360000
82 5 -16.657503 -4.633045 -159.317270 1 1.000000 4 3.360000
83 5 -16.657503 8.122811 -151.424987 1 1.000000 4 3.360000
84 5 -16.657503 3.424320 -165.670133 1 1.000000 4 5.040000
85 4 56.639813 85.987393 51.312773 1 1.000000 5 -3.290000
86 4 48.353398 90.349812 68.720045 1 1.000000 5 4.220000
87 4 59.820794 90.557754 59.201104 1 1.000000 5 8.480000
88 4 47.712332 86.526375 55.962409 1 1.000000 5 0.280000
89 4 40.936314 81.808164 65.506213 1 1.000000 5 2.080000
90 4 56.770230 79.289020 66.735662 1 1.000000 5 3.270000
91 5 57.517062 78.630334 66.827180 1 1.000000 5 0.000000
92 5 53.048396 65.117047 62.091984 1 1.000000 5 3.360000
93 5 65.180011 71.871827 67.766212 1 1.000000 5 3.360000
94 5 60.711346 58.358539 63.031016 1 1.000000 5 5.040000
95 5 72.842961 65.113319 68.705244 1 1.000000 5 0.000000
96 5 68.374295 51.600031 63.970048 1 1.000000 5 6.720000
97 5 80.505910 58.354811 69.644276 1 1.000000 5 0.000000
98 5 76.037244 44.841523 64.909080 1 1.000000 5 3.360000
99 5 88.168859 51.596303 70.583308 1 1.000000 5 3.360000
100 5 83.700194 38.083016 65.848112 1 1.000000 5 6.720000
101 5 95.831809 44.837796 71.522340 1 1.000000 5 0.000000
102 5 91.363143 31.324508 66.787144 1 1.000000 5 3.360000
103 5 103.494758 38.079288 72.461372 1 1.000000 5 5.040000
104 5 99.026092 24.566000 67.726176 1 1.000000 5 3.360000
105 5 111.157707 31.320780 73.400404 1 1.000000 5 3.360000
106 5 106.689042 17.807492 68.665208 1 1.000000 5 3.360000
107 5 118.820657 24.562273 74.339435 1 1.000000 5 3.360000
108 5 114.351991 11.048985 69.604240 1 1.000000 5 3.360000
109 5 126.483606 17.803765 75.278467 1 1.000000 5 3.360000
110 5 122.014940 4.290477 70.543271 1 1.000000 5 3.360000
111 5 134.146556 11.045257 76.217499 1 1.000000 5 3.360000
112 5 129.677890 -2.468031 71.482303 1 1.000000 5 5.040000

Ellipsoids

1 20.000000 20.000000 20.000000 1.000000 0.000005 0.000000 0.000000
2 20.000000 20.000000 20.000000 0.587785 0.000003 -0.000004 0.809017
3 20.000000 20.000000 20.000000 -0.309017 -0.000002 -0.000005 0.951057
4 20.000000 20.000000 20.000000 -0.951057 -0.000005 -0.000002 0.309017
5 20.000000 20.000000 20.000000 -0.809017 -0.000004 0.000003 -0.587785
6 20.000000 20.000000 20.000000 0.000000 0.000000 0.000005 -1.000000
7 20.000000 20.000000 20.000000 0.809017 0.000004 0.000003 -0.587785
8 20.000000 20.000000 20.000000 0.951057 0.000005 -0.000002 0.309017
9 20.000000 20.000000 20.000000 0.309017 0.000002 -0.000005 0.951057
10 20.000000 20.000000 20.000000 -0.587785 -0.000003 -0.000004 0.809017
11 20.000000 20.000000 20.000000 -1.000000 -0.000005 0.000000 -0.000000
12 20.000000 20.000000 20.000000 -0.587785 -0.000003 0.000004 -0.809017
13 20.000000 20.000000 20.000000 0.309017 0.000002 0.000005 -0.951057
14 20.000000 20.000000 20.000000 0.951057 0.000005 0.000002 -0.309017
15 20.000000 20.000000 20.000000 0.809017 0.000004 -0.000003 0.587785
16 20.000000 20.000000 20.000000 -0.000000 -0.000000 -0.000005 1.000000
17 55.000000 110.000000 110.000000 -0.000000 -0.000000 0.899764 0.436377
18 10.000000 10.000000 10.000000 -0.000000 -0.000000 0.899764 0.436377
19 20.000000 20.000000 20.000000 -0.000000 -0.000000 0.619155 0.785269
20 20.000000 20.000000 20.000000 -0.635296 0.500907 0.363930 0.461569
21 20.000000 20.000000 20.000000 -0.746835 0.588851 -0.191329 -0.242661
22 20.000000 20.000000 20.000000 -0.242661 0.191329 -0.588851 -0.746835
23 20.000000 20.000000 20.000000 0.461569 -0.363930 -0.500907 -0.635296
24 20.000000 20.000000 20.000000 0.785269 -0.619155 -0.000000 0.000000
25 20.000000 20.000000 20.000000 0.461569 -0.363930 0.500907 0.635296
26 20.000000 20.000000 20.000000 -0.242661 0.191329 0.588851 0.746835
27 20.000000 20.000000 20.000000 -0.746835 0.588851 0.191329 0.242661
28 20.000000 20.000000 20.000000 -0.635296 0.500907 -0.363930 -0.461569
29 20.000000 20.000000 20.000000 0.000000 0.000000 -0.619155 -0.785269
30 20.000000 20.000000 20.000000 0.635296 -0.500907 -0.363930 -0.461569
31 20.000000 20.000000 20.000000 0.746835 -0.588851 0.191329 0.242661
32 20.000000 20.000000 20.000000 0.242661 -0.191329 0.588851 0.746835
33 20.000000 20.000000 20.000000 -0.461569 0.363930 0.500907 0.635296
34 20.000000 20.000000 20.000000 -0.785269 0.619155 0.000000 -0.000000
35 20.000000 20.000000 20.000000 -0.461569 0.363930 -0.500907 -0.635296
36 20.000000 20.000000 20.000000 0.242661 -0.191329 -0.588851 -0.746835
37 20.000000 20.000000 20.000000 0.746835 -0.588851 -0.191329 -0.242661
38 20.000000 20.000000 20.000000 0.635296 -0.500907 0.363930 0.461569
39 55.000000 110.000000 110.000000 0.727924 0.353036 0.574114 -0.126036
40 10.000000 10.000000 10.000000 0.727924 0.353036 0.574114 -0.126036
41 20.000000 20.000000 20.000000 0.809017 0.000004 0.571567 0.137124
42 20.000000 20.000000 20.000000 0.364592 0.462410 0.335955 0.735108
43 20.000000 20.000000 20.000000 -0.380413 0.543591 -0.176628 0.727047
44 20.000000 20.000000 20.000000 -0.811795 0.176620 -0.543593 0.119587
45 20.000000 20.000000 20.000000 -0.573909 -0.335962 -0.462405 -0.586464
46 20.000000 20.000000 20.000000 0.137124 -0.571567 0.000004 -0.809017
47 20.000000 20.000000 20.000000 0.735108 -0.335955 0.462410 -0.364592
48 20.000000 20.000000 20.000000 0.727047 0.176628 0.543591 0.380413
49 20.000000 20.000000 20.000000 0.119587 0.543593 0.176620 0.811795
50 20.000000 20.000000 20.000000 -0.586464 0.462405 -0.335962 0.573909
51 20.000000 20.000000 20.000000 -0.809017 -0.000004 -0.571567 -0.137124
52 20.000000 20.000000 20.000000 -0.364592 -0.462410 -0.335955 -0.735108
53 20.000000 20.000000 20.000000 0.380413 -0.543591 0.176628 -0.727047
54 20.000000 20.000000 20.000000 0.811795 -0.176620 0.543593 -0.119587
55 20.000000 20.000000 20.000000 0.573909 0.335962 0.462405 0.586464
56 20.000000 20.000000 20.000000 -0.137124 0.571567 -0.000004 0.809017
57 18.000000 18.000000 18.000000 -0.000000 -0.000000 0.899764 0.436377
58 18.000000 18.000000 18.000000 -0.000000 -0.000000 0.899764 0.436377
59 18.000000 18.000000 18.000000 -0.000000 -0.000000 0.899764 0.436377
60 18.000000 18.000000 18.000000 -0.000000 -0.000000 0.899764 0.436377
61 18.000000 18.000000 18.000000 -0.000000 -0.000000 0.899764 0.436377
62 18.000000 18.000000 18.000000 -0.000000 -0.000000 0.899764 0.436377
63 18.000000 18.000000 18.000000 0.000000 -0.000000 0.873542 -0.486748
64 18.000000 18.000000 18.000000 -0.000000 -0.000000 0.158625 0.987339
65 18.000000 18.000000 18.000000 0.000000 -0.000000 0.873542 -0.486748
66 18.000000 18.000000 18.000000 -0.000000 -0.000000 0.158625 0.987339
67 18.000000 18.000000 18.000000 0.000000 -0.000000 0.873542 -0.486748
68 18.000000 18.000000 18.000000 -0.000000 -0.000000 0.158625 0.987339
69 18.000000 18.000000 18.000000 0.000000 -0.000000 0.873542 -0.486748
70 18.000000 18.000000 18.000000 -0.000000 -0.000000 0.158625 0.987339
71 18.000000 18.000000 18.000000 0.000000 -0.000000 0.873542 -0.486748
72 18.000000 18.000000 18.000000 -0.000000 -0.000000 0.158625 0.987339
73 18.000000 18.000000 18.000000 0.000000 -0.000000 0.873542 -0.486748
74 18.000000 18.000000 18.000000 -0.000000 -0.000000 0.158625 0.987339
75 18.000000 18.000000 18.000000 0.000000 -0.000000 0.873542 -0.486748
76 18.000000 18.000000 18.000000 -0.000000 -0.000000 0.158625 0.987339
77 18.000000 18.000000 18.000000 0.000000 -0.000000 0.873542 -0.486748
78 18.000000 18.000000 18.000000 -0.000000 -0.000000 0.158625 0.987339
79 18.000000 18.000000 18.000000 0.000000 -0.000000 0.873542 -0.486748
80 18.000000 18.000000 18.000000 -0.000000 -0.000000 0.158625 0.987339
81 18.000000 18.000000 18.000000 0.000000 -0.000000 0.873542 -0.486748
82 18.000000 18.000000 18.000000 -0.000000 -0.000000 0.158625 0.987339
83 18.000000 18.000000 18.000000 0.000000 -0.000000 0.873542 -0.486748
84 18.000000 18.000000 18.000000 -0.000000 -0.000000 0.158625 0.987339
85 18.000000 18.000000 18.000000 0.727924 0.353036 0.574114 -0.126036
86 18.000000 18.000000 18.000000 0.727924 0.353036 0.574114 -0.126036
87 18.000000 18.000000 18.000000 0.727924 0.353036 0.574114 -0.126036
88 18.000000 18.000000 18.000000 0.727924 0.353036 0.574114 -0.126036
89 18.000000 18.000000 18.000000 0.727924 0.353036 0.574114 -0.126036
90 18.000000 18.000000 18.000000 0.727924 0.353036 0.574114 -0.126036
91 18.000000 18.000000 18.000000 0.128330 0.798774 0.226055 -0.542578
92 18.000000 18.000000 18.000000 0.706711 -0.393788 0.432541 0.397995
93 18.000000 18.000000 18.000000 0.128330 0.798774 0.226055 -0.542578
94 18.000000 18.000000 18.000000 0.706711 -0.393788 0.432541 0.397995
95 18.000000 18.000000 18.000000 0.128330 0.798774 0.226055 -0.542578
96 18.000000 18.000000 18.000000 0.706711 -0.393788 0.432541 0.397995
97 18.000000 18.000000 18.000000 0.128330 0.798774 0.226055 -0.542578
98 18.000000 18.000000 18.000000 0.706711 -0.393788 0.432541 0.397995
99 18.000000 18.000000 18.000000 0.128330 0.798774 0.226055 -0.542578
100 18.000000 18.000000 18.000000 0.706711 -0.393788 0.432541 0.397995
101 18.000000 18.000000 18.000000 0.128330 0.798774 0.226055 -0.542578
102 18.000000 18.000000 18.000000 0.706711 -0.393788 0.432541 0.397995
103 18.000000 18.000000 18.000000 0.128330 0.798774 0.226055 -0.542578
104 18.000000 18.000000 18.000000 0.706711 -0.393788 0.432541 0.397995
105 18.000000 18.000000 18.000000 0.128330 0.798774 0.226055 -0.542578
106 18.000000 18.000000 18.000000 0.706711 -0.393788 0.432541 0.397995
107 18.000000 18.000000 18.000000 0.128330 0.798774 0.226055 -0.542578
108 18.000000 18.000000 18.000000 0.706711 -0.393788 0.432541 0.397995
109 18.000000 18.000000 18.000000 0.128330 0.798774 0.226055 -0.542578
110 18.000000 18.000000 18.000000 0.706711 -0.393788 0.432541 0.397995
111 18.000000 18.000000 18.000000 0.128330 0.798774 0.226055 -0.542578
112 18.000000 18.000000 18.000000 0.706711 -0.393788 0.432541 0.397995

Bonds

1 2 1 2
2 2 2 3
3 2 3 4
4 2 4 5
5 2 5 6
6 2 6 7
7 2 7 8
8 2 8 9
9 2 9 10
10 2 10 11
11 2 11 12
12 2 12 13
13 2 13 14
14 2 14 15
15 2 15 16
16 1 17 16
17 1 17 19
18 3 16 19
19 4 18 16
20 4 18 19
21 5 17 18
22 2 19 20
23 2 20 21
24 2 21 22
25 2 22 23
26 2 23 24
27 2 24 25
28 2 25 26
29 2 26 27
30 2 27 28
31 2 28 29
32 2 29 30
33 2 30 31
34 2 31 32
35 2 32 33
36 2 33 34
37 2 34 35
38 2 35 36
39 2 36 37
40 2 37 38
41 1 39 38
42 1 39 41
43 3 38 41
44 4 40 38
45 4 40 41
46 5 39 40
47 2 41 42
48 2 42 43
49 2 43 44
50 2 44 45
51 2 45 46
52 2 46 47
53 2 47 48
54 2 48 49
55 2 49 50
56 2 50 51
57 2 51 52
58 2 52 53
59 2 53 54
60 2 54 55
61 2 55 56
62 6 57 59
63 7 57 60
64 8 58 59
65 9 58 62
66 10 60 61
67 11 61 62
68 12 57 62
69 13 58 61
70 14 59 60
71 16 18 57
72 16 18 59
73 16 18 60
74 17 17 57
75 17 17 59
76 17 17 60
77 15 62 63
78 15 63 64
79 15 64 65
80 15 65 66
81 15 66 67
82 15 67 68
83 15 68 69
84 15 69 70
85 15 70 71
86 15 71 72
87 15 72 73
88 15 73 74
89 15 74 75
90 15 75 76
91 15 76 77
92 15 77 78
93 15 78 79
94 15 79 80
95 15 80 81
96 15 81 82
97 15 82 83
98 15 83 84
99 6 85 87
100 7 85 88
101 8 86 87
102 9 86 90
103 10 88 89
104 11 89 90
105 12 85 90
106 13 86 89
107 14 87 88
108 16 40 85
109 16 40 87
110 16 40 88
111 17 39 85
112 17 39 87
113 17 39 88
114 15 90 91
115 15 91 92
116 15 92 93
117 15 93 94
118 15 94 95
119 15 95 96
120 15 96 97
121 15 97 98
122 15 98 99
123 15 99 100
124 15 100 101
125 15 101 102
126 15 102 103
127 15 103 104
128 15 104 105
129 15 105 106
130 15 106 107
131 15 107 108
132 15 108 109
133 15 109 110
134 15 110 111
135 15 111 112

Angles

1 2 1 2 2
2 1 1 2 3
3 2 2 3 3
4 1 2 3 4
5 2 3 4 4
6 1 3 4 5
7 2 4 5 5
8 1 4 5 6
9 2 5 6 6
10 1 5 6 7
11 2 6 7 7
12 1 6 7 8
13 2 7 8 8
14 1 7 8 9
15 2 8 9 9
16 1 8 9 10
17 2 9 10 10
18 1 9 10 11
19 2 10 11 11
20 1 10 11 12
21 2 11 12 12
22 1 11 12 13
23 2 12 13 13
24 1 12 13 14
25 2 13 14 14
26 1 13 14 15
27 2 14 15 15
28 1 14 15 16
29 2 15 16 16
30 3 15 16 16
31 6 15 16 17
32 4 16 17 17
33 10 16 17 17
34 7 16 17 17
35 5 17 18 18
36 12 17 18 18
37 9 16 19 19
38 11 17 19 19
39 10 17 19 19
40 8 17 19 19
41 6 17 19 20
42 2 19 20 20
43 1 19 20 21
44 2 20 21 21
45 1 20 21 22
46 2 21 22 22
47 1 21 22 23
48 2 22 23 23
49 1 22 23 24
50 2 23 24 24
51 1 23 24 25
52 2 24 25 25
53 1 24 25 26
54 2 25 26 26
55 1 25 26 27
56 2 26 27 27
57 1 26 27 28
58 2 27 28 28
59 1 27 28 29
60 2 28 29 29
61 1 28 29 30
62 2 29 30 30
63 1 29 30 31
64 2 30 31 31
65 1 30 31 32
66 2 31 32 32
67 1 31 32 33
68 2 32 33 33
69 1 32 33 34
70 2 33 34 34
71 1 33 34 35
72 2 34 35 35
73 1 34 35 36
74 2 35 36 36
75 1 35 36 37
76 2 36 37 37
77 1 36 37 38
78 2 37 38 38
79 3 37 38 38
80 6 37 38 39
81 4 38 39 39
82 10 38 39 39
83 7 38 39 39
84 5 39 40 40
85 12 39 40 40
86 9 38 41 41
87 11 39 41 41
88 10 39 41 41
89 8 39 41 41
90 6 39 41 42
91 2 41 42 42
92 1 41 42 43
93 2 42 43 43
94 1 42 43 44
95 2 43 44 44
96 1 43 44 45
97 2 44 45 45
98 1 44 45 46
99 2 45 46 46
100 1 45 46 47
101 2 46 47 47
102 1 46 47 48
103 2 47 48 48
104 1 47 48 49
105 2 48 49 49
106 1 48 49 50
107 2 49 50 50
108 1 49 50 51
109 2 50 51 51
110 1 50 51 52
111 2 51 52 52
112 1 51 52 53
113 2 52 53 53
114 1 52 53 54
115 2 53 54 54
116 1 53 54 55
117 2 54 55 55
118 1 54 55 56
119 2 55 56 56
120 13 59 57 60
121 14 57 60 61
122 15 59 58 62
123 16 58 61 62
124 17 57 62 61
125 18 58 59 60
126 19 63 64 65
127 19 64 65 66
128 19 65 66 67
129 19 66 67 68
130 19 67 68 69
131 19 68 69 70
132 19 69 70 71
133 19 70 71 72
134 19 71 72 73
135 19 72 73 74
136 19 73 74 75
137 19 74 75 76
138 19 75 76 77
139 19 76 77 78
140 19 77 78 79
141 19 78 79 80
142 19 79 80 81
143 19 80 81 82
144 19 81 82 83
145 19 82 83 84
146 13 87 85 88
147 14 85 88 89
148 15 87 86 90
149 16 86 89 90
150 17 85 90 89
151 18 86 87 88
152 19 91 92 93
153 19 92 93 94
154 19 93 94 95
155 19 94 95 96
156 19 95 96 97
157 19 96 97 98
158 19 97 98 99
159 19 98 99 100
160 19 99 100 101
161 19 100 101 102
162 19 101 102 103
163 19 102 103 104
164 19 103 104 105
165 19 104 105 106
166 19 105 106 107
167 19 106 107 108
168 19 107 108 109
169 19 108 109 110
170 19 109 110 111
171 19 110 111 112

Dihedrals

1 1 59 57 60 61
2 2 59 58 62 61
3 1 87 85 88 89
4 2 87 86 90 89

