LAMMPS data file

56 atoms
56 ellipsoids
61 bonds
120 angles
0 dihedrals

3 atom types
5 bond types
12 angle types
0 dihedral types

-5000.000000 5000.000000 xlo xhi
-5000.000000 5000.000000 ylo yhi
-5000.000000 5000.000000 zlo zhi

Masses

1 196666.000000
2 1950.000000
3 19500.000000

Atoms

1 2 75.149695 235.872361 24.161939 1 1.000000 1 -3.000000
2 2 70.463110 227.151930 24.161939 1 1.000000 1 -3.000000
3 2 65.776526 218.431499 24.161939 1 1.000000 1 -3.000000
4 2 61.089941 209.711067 24.161939 1 1.000000 1 -3.000000
5 2 56.403356 200.990636 24.161939 1 1.000000 1 -3.000000
6 2 51.716771 192.270204 24.161939 1 1.000000 1 -3.000000
7 2 47.030187 183.549773 24.161939 1 1.000000 1 -3.000000
8 2 42.343602 174.829342 24.161939 1 1.000000 1 -3.000000
9 2 37.657017 166.108910 24.161939 1 1.000000 1 -3.000000
10 2 32.970433 157.388479 24.161939 1 1.000000 1 -3.000000
11 2 28.283848 148.668047 24.161939 1 1.000000 1 -3.000000
12 2 23.597263 139.947616 24.161939 1 1.000000 1 -3.000000
13 2 18.910678 131.227185 24.161939 1 1.000000 1 -3.000000
14 2 14.224094 122.506753 24.161939 1 1.000000 1 -3.000000
15 2 9.537509 113.786322 24.161939 1 1.000000 1 -3.000000
16 2 4.850924 105.065890 24.161939 1 1.000000 2 -3.000000
17 1 47.248498 91.081386 6.483035 1 1.000000 2 0.000000
18 3 47.248498 126.081386 6.483035 1 1.000000 2 0.000000
19 2 89.646072 105.065890 -11.195869 1 1.000000 2 -3.000000
20 2 84.959487 113.786322 -11.195869 1 1.000000 1 -3.000000
21 2 80.272902 122.506753 -11.195869 1 1.000000 1 -3.000000
22 2 75.586318 131.227185 -11.195869 1 1.000000 1 -3.000000
23 2 70.899733 139.947616 -11.195869 1 1.000000 1 -3.000000
24 2 66.213148 148.668047 -11.195869 1 1.000000 1 -3.000000
25 2 61.526563 157.388479 -11.195869 1 1.000000 1 -3.000000
26 2 56.839979 166.108910 -11.195869 1 1.000000 1 -3.000000
27 2 52.153394 174.829342 -11.195869 1 1.000000 1 -3.000000
28 2 47.466809 183.549773 -11.195869 1 1.000000 1 -3.000000
29 2 42.780225 192.270204 -11.195869 1 1.000000 1 -3.000000
30 2 38.093640 200.990636 -11.195869 1 1.000000 1 -3.000000
31 2 33.407055 209.711067 -11.195869 1 1.000000 1 -3.000000
32 2 28.720470 218.431499 -11.195869 1 1.000000 1 -3.000000
33 2 24.033886 227.151930 -11.195869 1 1.000000 1 -3.000000
34 2 19.347301 235.872361 -11.195869 1 1.000000 1 -3.000000
35 2 14.660716 244.592793 -11.195869 1 1.000000 1 -3.000000
36 2 9.974132 253.313224 -11.195869 1 1.000000 1 -3.000000
37 2 5.287547 262.033655 -11.195869 1 1.000000 1 -3.000000
38 2 0.600962 270.754087 -11.195869 1 1.000000 3 -3.000000
39 1 31.048715 278.316449 -47.547063 1 1.000000 3 0.000000
40 3 41.133333 248.736183 -31.789260 1 1.000000 3 0.000000
41 2 69.555233 262.240791 -71.305967 1 1.000000 3 -3.000000
42 2 69.893918 256.221070 -63.453691 1 1.000000 1 -3.000000
43 2 70.232603 250.201348 -55.601415 1 1.000000 1 -3.000000
44 2 70.571288 244.181626 -47.749139 1 1.000000 1 -3.000000
45 2 70.909973 238.161904 -39.896863 1 1.000000 1 -3.000000
46 2 71.248659 232.142182 -32.044586 1 1.000000 1 -3.000000
47 2 71.587344 226.122460 -24.192310 1 1.000000 1 -3.000000
48 2 71.926029 220.102739 -16.340034 1 1.000000 1 -3.000000
49 2 72.264714 214.083017 -8.487758 1 1.000000 1 -3.000000
50 2 72.603399 208.063295 -0.635482 1 1.000000 1 -3.000000
51 2 72.942084 202.043573 7.216795 1 1.000000 1 -3.000000
52 2 73.280769 196.023851 15.069071 1 1.000000 1 -3.000000
53 2 73.619454 190.004130 22.921347 1 1.000000 1 -3.000000
54 2 73.958139 183.984408 30.773623 1 1.000000 1 -3.000000
55 2 74.296824 177.964686 38.625900 1 1.000000 1 -3.000000
56 2 74.635509 171.944964 46.478176 1 1.000000 1 -3.000000

Ellipsoids

1 20.000000 20.000000 20.000000 -0.362839 -0.606917 -0.362839 0.606917
2 20.000000 20.000000 20.000000 -0.704277 -0.650279 0.277735 0.063194
3 20.000000 20.000000 20.000000 -0.465089 -0.157532 0.689336 -0.532628
4 20.000000 20.000000 20.000000 0.157532 0.465089 0.532628 -0.689336
5 20.000000 20.000000 20.000000 0.650279 0.704277 -0.063194 -0.277735
6 20.000000 20.000000 20.000000 0.606917 0.362839 -0.606917 0.362839
7 20.000000 20.000000 20.000000 0.063194 -0.277735 -0.650279 0.704277
8 20.000000 20.000000 20.000000 -0.532628 -0.689336 -0.157532 0.465089
9 20.000000 20.000000 20.000000 -0.689336 -0.532628 0.465089 -0.157532
10 20.000000 20.000000 20.000000 -0.277735 0.063194 0.704277 -0.650279
11 20.000000 20.000000 20.000000 0.362839 0.606917 0.362839 -0.606917
12 20.000000 20.000000 20.000000 0.704277 0.650279 -0.277735 -0.063194
13 20.000000 20.000000 20.000000 0.465089 0.157532 -0.689336 0.532628
14 20.000000 20.000000 20.000000 -0.157532 -0.465089 -0.532628 0.689336
15 20.000000 20.000000 20.000000 -0.650279 -0.704277 0.063194 0.277735
16 20.000000 20.000000 20.000000 -0.606917 -0.362839 0.606917 -0.362839
17 55.000000 110.000000 110.000000 0.500000 -0.500000 -0.500000 -0.500000
18 10.000000 10.000000 10.000000 0.500000 -0.500000 -0.500000 -0.500000
19 20.000000 20.000000 20.000000 0.606917 -0.362839 -0.606917 -0.362839
20 20.000000 20.000000 20.000000 0.650279 -0.704277 -0.063194 0.277735
21 20.000000 20.000000 20.000000 0.157532 -0.465089 0.532628 0.689336
22 20.000000 20.000000 20.000000 -0.465089 0.157532 0.689336 0.532628
23 20.000000 20.000000 20.000000 -0.704277 0.650279 0.277735 -0.063194
24 20.000000 20.000000 20.000000 -0.362839 0.606917 -0.362839 -0.606917
25 20.000000 20.000000 20.000000 0.277735 0.063194 -0.704277 -0.650279
26 20.000000 20.000000 20.000000 0.689336 -0.532628 -0.465089 -0.157532
27 20.000000 20.000000 20.000000 0.532628 -0.689336 0.157532 0.465089
28 20.000000 20.000000 20.000000 -0.063194 -0.277735 0.650279 0.704277
29 20.000000 20.000000 20.000000 -0.606917 0.362839 0.606917 0.362839
30 20.000000 20.000000 20.000000 -0.650279 0.704277 0.063194 -0.277735
31 20.000000 20.000000 20.000000 -0.157532 0.465089 -0.532628 -0.689336
32 20.000000 20.000000 20.000000 0.465089 -0.157532 -0.689336 -0.532628
33 20.000000 20.000000 20.000000 0.704277 -0.650279 -0.277735 0.063194
34 20.000000 20.000000 20.000000 0.362839 -0.606917 0.362839 0.606917
35 20.000000 20.000000 20.000000 -0.277735 -0.063194 0.704277 0.650279
36 20.000000 20.000000 20.000000 -0.689336 0.532628 0.465089 0.157532
37 20.000000 20.000000 20.000000 -0.532628 0.689336 -0.157532 -0.465089
38 20.000000 20.000000 20.000000 0.063194 0.277735 -0.650279 -0.704277
39 55.000000 110.000000 110.000000 -0.284759 -0.006506 -0.524258 0.802511
40 10.000000 10.000000 10.000000 -0.284759 -0.006506 -0.524258 0.802511
41 20.000000 20.000000 20.000000 -0.274559 -0.075813 -0.312526 0.906199
42 20.000000 20.000000 20.000000 -0.894512 -0.297401 -0.122365 0.310528
43 20.000000 20.000000 20.000000 -0.777003 -0.273803 0.168678 -0.541152
44 20.000000 20.000000 20.000000 -0.018910 -0.024474 0.320658 -0.946690
45 20.000000 20.000000 20.000000 0.754773 0.245032 0.208278 -0.571749
46 20.000000 20.000000 20.000000 0.906199 0.312526 -0.075813 0.274559
47 20.000000 20.000000 20.000000 0.310528 0.122365 -0.297401 0.894512
48 20.000000 20.000000 20.000000 -0.541152 -0.168678 -0.273803 0.777003
49 20.000000 20.000000 20.000000 -0.946690 -0.320658 -0.024474 0.018910
50 20.000000 20.000000 20.000000 -0.571749 -0.208278 0.245032 -0.754773
51 20.000000 20.000000 20.000000 0.274559 0.075813 0.312526 -0.906199
52 20.000000 20.000000 20.000000 0.894512 0.297401 0.122365 -0.310528
53 20.000000 20.000000 20.000000 0.777003 0.273803 -0.168678 0.541152
54 20.000000 20.000000 20.000000 0.018910 0.024474 -0.320658 0.946690
55 20.000000 20.000000 20.000000 -0.754773 -0.245032 -0.208278 0.571749
56 20.000000 20.000000 20.000000 -0.906199 -0.312526 0.075813 -0.274559

Bonds

1 2 1 2
2 2 2 3
3 2 3 4
4 2 4 5
5 2 5 6
6 2 6 7
7 2 7 8
8 2 8 9
9 2 9 10
10 2 10 11
11 2 11 12
12 2 12 13
13 2 13 14
14 2 14 15
15 2 15 16
16 1 17 16
17 1 17 19
18 3 16 19
19 4 18 16
20 4 18 19
21 5 17 18
22 2 19 20
23 2 20 21
24 2 21 22
25 2 22 23
26 2 23 24
27 2 24 25
28 2 25 26
29 2 26 27
30 2 27 28
31 2 28 29
32 2 29 30
33 2 30 31
34 2 31 32
35 2 32 33
36 2 33 34
37 2 34 35
38 2 35 36
39 2 36 37
40 2 37 38
41 1 39 38
42 1 39 41
43 3 38 41
44 4 40 38
45 4 40 41
46 5 39 40
47 2 41 42
48 2 42 43
49 2 43 44
50 2 44 45
51 2 45 46
52 2 46 47
53 2 47 48
54 2 48 49
55 2 49 50
56 2 50 51
57 2 51 52
58 2 52 53
59 2 53 54
60 2 54 55
61 2 55 56

Angles

1 2 1 2 2
2 1 1 2 3
3 2 2 3 3
4 1 2 3 4
5 2 3 4 4
6 1 3 4 5
7 2 4 5 5
8 1 4 5 6
9 2 5 6 6
10 1 5 6 7
11 2 6 7 7
12 1 6 7 8
13 2 7 8 8
14 1 7 8 9
15 2 8 9 9
16 1 8 9 10
17 2 9 10 10
18 1 9 10 11
19 2 10 11 11
20 1 10 11 12
21 2 11 12 12
22 1 11 12 13
23 2 12 13 13
24 1 12 13 14
25 2 13 14 14
26 1 13 14 15
27 2 14 15 15
28 1 14 15 16
29 2 15 16 16
30 3 15 16 16
31 6 15 16 17
32 4 16 17 17
33 10 16 17 17
34 7 16 17 17
35 5 17 18 18
36 12 17 18 18
37 9 16 19 19
38 11 17 19 19
39 10 17 19 19
40 8 17 19 19
41 6 17 19 20
42 2 19 20 20
43 1 19 20 21
44 2 20 21 21
45 1 20 21 22
46 2 21 22 22
47 1 21 22 23
48 2 22 23 23
49 1 22 23 24
50 2 23 24 24
51 1 23 24 25
52 2 24 25 25
53 1 24 25 26
54 2 25 26 26
55 1 25 26 27
56 2 26 27 27
57 1 26 27 28
58 2 27 28 28
59 1 27 28 29
60 2 28 29 29
61 1 28 29 30
62 2 29 30 30
63 1 29 30 31
64 2 30 31 31
65 1 30 31 32
66 2 31 32 32
67 1 31 32 33
68 2 32 33 33
69 1 32 33 34
70 2 33 34 34
71 1 33 34 35
72 2 34 35 35
73 1 34 35 36
74 2 35 36 36
75 1 35 36 37
76 2 36 37 37
77 1 36 37 38
78 2 37 38 38
79 3 37 38 38
80 6 37 38 39
81 4 38 39 39
82 10 38 39 39
83 7 38 39 39
84 5 39 40 40
85 12 39 40 40
86 9 38 41 41
87 11 39 41 41
88 10 39 41 41
89 8 39 41 41
90 6 39 41 42
91 2 41 42 42
92 1 41 42 43
93 2 42 43 43
94 1 42 43 44
95 2 43 44 44
96 1 43 44 45
97 2 44 45 45
98 1 44 45 46
99 2 45 46 46
100 1 45 46 47
101 2 46 47 47
102 1 46 47 48
103 2 47 48 48
104 1 47 48 49
105 2 48 49 49
106 1 48 49 50
107 2 49 50 50
108 1 49 50 51
109 2 50 51 51
110 1 50 51 52
111 2 51 52 52
112 1 51 52 53
113 2 52 53 53
114 1 52 53 54
115 2 53 54 54
116 1 53 54 55
117 2 54 55 55
118 1 54 55 56
119 2 55 56 56
120 3 55 56 56


