ITEM: TIMESTEP
0
ITEM: NUMBER OF ATOMS
10
ITEM: BOX BOUNDS
-50.000000 50.000000
-50.000000 50.000000
-50.000000 50.000000
ITEM: ATOMS id type x y z c_q[1] c_q[2] c_q[3] c_q[4]
1 1 0.000000 0.000000 0.000000 0.707107 0.707107 0.000000 0.000000
2 1 0.000000 -1.000001 0.000000 0.704416 0.704416 -0.061628 0.061628
3 1 0.000000 -2.000001 0.000000 0.696364 0.696364 -0.122788 0.122788
4 1 0.000000 -3.000002 0.000000 0.683013 0.683013 -0.183013 0.183013
5 1 0.000000 -4.000002 0.000000 0.664463 0.664463 -0.241845 0.241845
6 1 0.000000 -5.000003 0.000000 0.640857 0.640857 -0.298836 0.298836
7 1 0.000000 -6.000004 0.000000 0.612373 0.612373 -0.353554 0.353554
8 1 0.000000 -7.000004 0.000000 0.579228 0.579228 -0.405580 0.405580
9 1 0.000000 -8.000005 0.000000 0.541675 0.541675 -0.454520 0.454520
10 1 0.000000 -9.000006 0.000000 0.500000 0.500000 -0.500000 0.500000
