LAMMPS data file

10 atoms
10 ellipsoids
9 bonds
17 angles
0 dihedrals

1 atom types
1 bond types
2 angle types
0 dihedral types

-50.000000 50.000000 xlo xhi
-50.000000 50.000000 ylo yhi
-50.000000 50.000000 zlo zhi

Masses

1 10.000000

Atoms

1 1 0.000000 0.000000 0.000000 1.000000 1.000000 1.000000 0.000000
2 1 0.000000 -1.000001 0.000000 1.000000 1.000000 1.000000 0.000000
3 1 0.000000 -2.000001 0.000000 1.000000 1.000000 1.000000 0.000000
4 1 0.000000 -3.000002 0.000000 1.000000 1.000000 1.000000 0.000000
5 1 0.000000 -4.000002 0.000000 1.000000 1.000000 1.000000 0.000000
6 1 0.000000 -5.000003 0.000000 1.000000 1.000000 1.000000 0.000000
7 1 0.000000 -6.000004 0.000000 1.000000 1.000000 1.000000 0.000000
8 1 0.000000 -7.000004 0.000000 1.000000 1.000000 1.000000 0.000000
9 1 0.000000 -8.000005 0.000000 1.000000 1.000000 1.000000 0.000000
10 1 0.000000 -9.000006 0.000000 1.000000 1.000000 1.000000 0.000000

Ellipsoids

1 1.000000 1.000000 1.000000 0.707107 0.707107 0.000000 0.000000
2 1.000000 1.000000 1.000000 0.704416 0.704416 -0.061628 0.061628
3 1.000000 1.000000 1.000000 0.696364 0.696364 -0.122788 0.122788
4 1.000000 1.000000 1.000000 0.683013 0.683013 -0.183013 0.183013
5 1.000000 1.000000 1.000000 0.664463 0.664463 -0.241845 0.241845
6 1.000000 1.000000 1.000000 0.640857 0.640857 -0.298836 0.298836
7 1.000000 1.000000 1.000000 0.612373 0.612373 -0.353554 0.353554
8 1.000000 1.000000 1.000000 0.579228 0.579228 -0.405580 0.405580
9 1.000000 1.000000 1.000000 0.541675 0.541675 -0.454520 0.454520
10 1.000000 1.000000 1.000000 0.500000 0.500000 -0.500000 0.500000

Bonds

1 1 1 2
2 1 2 3
3 1 3 4
4 1 4 5
5 1 5 6
6 1 6 7
7 1 7 8
8 1 8 9
9 1 9 10

Angles

1 2 1 2 2
2 2 2 3 3
3 1 1 2 3
4 2 3 4 4
5 1 2 3 4
6 2 4 5 5
7 1 3 4 5
8 2 5 6 6
9 1 4 5 6
10 2 6 7 7
11 1 5 6 7
12 2 7 8 8
13 1 6 7 8
14 2 8 9 9
15 1 7 8 9
16 2 9 10 10
17 1 8 9 10

