LAMMPS data file

2 atoms
2 ellipsoids
1 bonds
0 angles
0 dihedrals

1 atom types
1 bond types
0 angle types
0 dihedral types

-5000.000000 5000.000000 xlo xhi
-5000.000000 5000.000000 ylo yhi
-5000.000000 5000.000000 zlo zhi

Masses

1 203166.000000

Atoms

1 1 0.000000 0.000000 0.000000 1.000000 1.000000 1 0.000000
2 1 0.000000 500.000000 0.000000 1.000000 1.000000 2 0.000000

Ellipsoids

1 55.000000 55.000000 55.000000 1.000000 0.000000 0.000000 0.000000
2 55.000000 55.000000 55.000000 1.000000 0.000000 0.000000 0.000000

Bonds

1 1 1 2
